
    -----------------------------------------------------------------------
          Psi4: An Open-Source Ab Initio Electronic Structure Package
                               Psi4 1.8.1 release

                         Git: Rev {} zzzzzzz 


    D. G. A. Smith, L. A. Burns, A. C. Simmonett, R. M. Parrish,
    M. C. Schieber, R. Galvelis, P. Kraus, H. Kruse, R. Di Remigio,
    A. Alenaizan, A. M. James, S. Lehtola, J. P. Misiewicz, M. Scheurer,
    R. A. Shaw, J. B. Schriber, Y. Xie, Z. L. Glick, D. A. Sirianni,
    J. S. O'Brien, J. M. Waldrop, A. Kumar, E. G. Hohenstein,
    B. P. Pritchard, B. R. Brooks, H. F. Schaefer III, A. Yu. Sokolov,
    K. Patkowski, A. E. DePrince III, U. Bozkaya, R. A. King,
    F. A. Evangelista, J. M. Turney, T. D. Crawford, C. D. Sherrill,
    J. Chem. Phys. 152(18) 184108 (2020). https://doi.org/10.1063/5.0006002

                            Additional Code Authors
    E. T. Seidl, C. L. Janssen, E. F. Valeev, M. L. Leininger,
    J. F. Gonthier, R. M. Richard, H. R. McAlexander, M. Saitow, X. Wang,
    P. Verma, M. H. Lechner, A. Jiang, S. Behnle, A. G. Heide,
    M. F. Herbst, and D. L. Poole

             Previous Authors, Complete List of Code Contributors,
                       and Citations for Specific Modules
    https://github.com/psi4/psi4/blob/master/codemeta.json
    https://github.com/psi4/psi4/graphs/contributors
    http://psicode.org/psi4manual/master/introduction.html#citing-psifour

    -----------------------------------------------------------------------


    Psi4 started on: Wednesday, 30 August 2023 09:13PM

    Process ID: 41739
    Host:       lx12
    PSIDATADIR: /lila/home/lilywang/micromamba/envs/compare-esps/share/psi4
    Memory:     500.0 MiB
    Threads:    1
    
  ==> Input File <==

--------------------------------------------------------------------------
molecule mol {
    0 1
    C   -0.35075348  -0.00507298  -0.01802813
    O    0.96437042  -0.36240239  -0.26012000
    H   -0.59845665   0.06164932   1.05237343
    H   -0.98625455  -0.81567528  -0.46260344
    H   -0.65785687   0.92689831  -0.50107706
    H    1.62895112   0.19460302   0.18945519
    units angstrom
    no_com
    no_reorient
}

set {
  basis 6-31g*
  dft_spherical_points 434
  dft_radial_points 85
  dft_pruning_scheme robust
}

Ewfn = prop('hf', properties = ['GRID_ESP', 'GRID_FIELD'], return_wfn=True)
mol.save_xyz_file('final-geometry.xyz', 1)
--------------------------------------------------------------------------

*** tstart() called on lx12
*** at Wed Aug 30 21:13:54 2023

   => Libint2 <=

    Primary   basis highest AM E, G, H:  5, 4, 3
    Auxiliary basis highest AM E, G, H:  6, 5, 4
    Onebody   basis highest AM E, G, H:  6, 5, 4
    Solid Harmonics ordering:            gaussian
   => Loading Basis Set <=

    Name: 6-31G*
    Role: ORBITAL
    Keyword: BASIS
    atoms 1   entry C          line   111 file /lila/home/lilywang/micromamba/envs/compare-esps/share/psi4/basis/6-31gs.gbs 
    atoms 2   entry O          line   145 file /lila/home/lilywang/micromamba/envs/compare-esps/share/psi4/basis/6-31gs.gbs 
    atoms 3-6 entry H          line    44 file /lila/home/lilywang/micromamba/envs/compare-esps/share/psi4/basis/6-31gs.gbs 


         ---------------------------------------------------------
                                   SCF
               by Justin Turney, Rob Parrish, Andy Simmonett
                          and Daniel G. A. Smith
                              RHF Reference
                        1 Threads,    500 MiB Core
         ---------------------------------------------------------

  ==> Geometry <==

    Molecular point group: c1
    Full point group: C1

    Geometry (in Angstrom), charge = 0, multiplicity = 1:

       Center              X                  Y                   Z               Mass       
    ------------   -----------------  -----------------  -----------------  -----------------
         C           -0.350753480000    -0.005072980000    -0.018028130000    12.000000000000
         O            0.964370420000    -0.362402390000    -0.260120000000    15.994914619570
         H           -0.598456650000     0.061649320000     1.052373430000     1.007825032230
         H           -0.986254550000    -0.815675280000    -0.462603440000     1.007825032230
         H           -0.657856870000     0.926898310000    -0.501077060000     1.007825032230
         H            1.628951120000     0.194603020000     0.189455190000     1.007825032230

  Running in c1 symmetry.

  Rotational constants: A =      3.92806  B =      0.68844  C =      0.65846 [cm^-1]
  Rotational constants: A = 117760.24782  B =  20638.76291  C =  19740.12086 [MHz]
  Nuclear repulsion =   40.561357949183517

  Charge       = 0
  Multiplicity = 1
  Electrons    = 18
  Nalpha       = 9
  Nbeta        = 9

  ==> Algorithm <==

  SCF Algorithm Type is DF.
  DIIS enabled.
  MOM disabled.
  Fractional occupation disabled.
  Guess Type is SAD.
  Energy threshold   = 1.00e-06
  Density threshold  = 1.00e-06
  Integral threshold = 1.00e-12

  ==> Primary Basis <==

  Basis Set: 6-31G*
    Blend: 6-31G*
    Number of shells: 20
    Number of basis functions: 38
    Number of Cartesian functions: 38
    Spherical Harmonics?: false
    Max angular momentum: 2

   => Loading Basis Set <=

    Name: (6-31G* AUX)
    Role: JKFIT
    Keyword: DF_BASIS_SCF
    atoms 1   entry C          line   121 file /lila/home/lilywang/micromamba/envs/compare-esps/share/psi4/basis/cc-pvdz-jkfit.gbs 
    atoms 2   entry O          line   221 file /lila/home/lilywang/micromamba/envs/compare-esps/share/psi4/basis/cc-pvdz-jkfit.gbs 
    atoms 3-6 entry H          line    51 file /lila/home/lilywang/micromamba/envs/compare-esps/share/psi4/basis/cc-pvdz-jkfit.gbs 

  ==> Integral Setup <==

  DFHelper Memory: AOs need 0.004 GiB; user supplied 0.366 GiB. 
  Using in-core AOs.

  ==> MemDFJK: Density-Fitted J/K Matrices <==

    J tasked:                   Yes
    K tasked:                   Yes
    wK tasked:                   No
    OpenMP threads:               1
    Memory [MiB]:               375
    Algorithm:                 Core
    Schwarz Cutoff:           1E-12
    Mask sparsity (%):       0.0000
    Fitting Condition:        1E-10

   => Auxiliary Basis Set <=

  Basis Set: (6-31G* AUX)
    Blend: CC-PVDZ-JKFIT
    Number of shells: 84
    Number of basis functions: 262
    Number of Cartesian functions: 262
    Spherical Harmonics?: false
    Max angular momentum: 3

  Minimum eigenvalue in the overlap matrix is 9.4787686926E-03.
  Reciprocal condition number of the overlap matrix is 1.5800691721E-03.
    Using symmetric orthogonalization.

  ==> Pre-Iterations <==

  SCF Guess: Superposition of Atomic Densities via on-the-fly atomic UHF (no occupation information).

   -------------------------
    Irrep   Nso     Nmo    
   -------------------------
     A         38      38 
   -------------------------
    Total      38      38
   -------------------------

  ==> Iterations <==

                           Total Energy        Delta E     RMS |[F,P]|

   @DF-RHF iter SAD:  -114.40224738126525   -1.14402e+02   0.00000e+00 
   @DF-RHF iter   1:  -114.97034776923225   -5.68100e-01   9.29815e-03 DIIS/ADIIS
   @DF-RHF iter   2:  -115.01860335774208   -4.82556e-02   5.02892e-03 DIIS/ADIIS
   @DF-RHF iter   3:  -115.03125279519598   -1.26494e-02   8.19577e-04 DIIS/ADIIS
   @DF-RHF iter   4:  -115.03191044147712   -6.57646e-04   1.79561e-04 DIIS/ADIIS
   @DF-RHF iter   5:  -115.03194406292492   -3.36214e-05   5.02283e-05 DIIS
   @DF-RHF iter   6:  -115.03194688406488   -2.82114e-06   1.23096e-05 DIIS
   @DF-RHF iter   7:  -115.03194715954935   -2.75484e-07   2.84012e-06 DIIS
   @DF-RHF iter   8:  -115.03194717776711   -1.82178e-08   4.82581e-07 DIIS
  Energy and wave function converged.


  ==> Post-Iterations <==

    Orbital Energies [Eh]
    ---------------------

    Doubly Occupied:                                                      

       1A    -20.558698     2A    -11.272663     3A     -1.356881  
       4A     -0.919528     5A     -0.691639     6A     -0.619016  
       7A     -0.593757     8A     -0.483327     9A     -0.440764  

    Virtual:                                                              

      10A      0.223062    11A      0.271672    12A      0.316922  
      13A      0.332923    14A      0.393137    15A      0.768292  
      16A      0.782314    17A      0.806512    18A      1.033277  
      19A      1.121566    20A      1.138694    21A      1.178849  
      22A      1.202258    23A      1.252835    24A      1.259668  
      25A      1.415048    26A      1.721726    27A      1.786264  
      28A      1.888314    29A      2.034315    30A      2.351450  
      31A      2.450699    32A      2.458116    33A      2.664066  
      34A      2.777810    35A      2.845908    36A      3.160158  
      37A      4.138754    38A      4.632044  

    Final Occupation by Irrep:
              A 
    DOCC [     9 ]
    NA   [     9 ]
    NB   [     9 ]

  @DF-RHF Final Energy:  -115.03194717776711

   => Energetics <=

    Nuclear Repulsion Energy =             40.5613579491835168
    One-Electron Energy =                -237.3140661328629335
    Two-Electron Energy =                  81.7207610059123226
    Total Energy =                       -115.0319471777671083

Computation Completed


Properties will be evaluated at   0.000000,   0.000000,   0.000000 [a0]

Properties computed using the HF density matrix


 Multipole Moments:

 ------------------------------------------------------------------------------------
     Multipole            Electronic (a.u.)      Nuclear  (a.u.)        Total (a.u.)
 ------------------------------------------------------------------------------------

 L = 1.  Multiply by 2.5417464519 to convert [e a0] to [Debye]
 Dipole X            :         -9.5567995            9.4426317           -0.1141678
 Dipole Y            :          5.3849419           -4.8418216            0.5431203
 Dipole Z            :          4.0347320           -3.6112301            0.4235019
 Magnitude           :                                                    0.6981173

 ------------------------------------------------------------------------------------

 Field computed on the grid and written to grid_field.dat

 Electrostatic potential to be computed on the grid and written to grid_esp.dat

*** tstop() called on lx12 at Wed Aug 30 21:13:55 2023
Module time:
	user time   =       1.11 seconds =       0.02 minutes
	system time =       0.08 seconds =       0.00 minutes
	total time  =          1 seconds =       0.02 minutes
Total time:
	user time   =       1.11 seconds =       0.02 minutes
	system time =       0.08 seconds =       0.00 minutes
	total time  =          1 seconds =       0.02 minutes

    Psi4 stopped on: Wednesday, 30 August 2023 09:13PM
    Psi4 wall time for execution: 0:00:01.86

*** Psi4 exiting successfully. Buy a developer a beer!
